Program Version,EnergyPlus, Version 8.9.0-40101eaafd, YMD=2018.05.23 15:35
1,5,Environment Title[],Latitude[deg],Longitude[deg],Time Zone[],Elevation[m]
2,8,Day of Simulation[],Month[],Day of Month[],DST Indicator[1=yes 0=no],Hour[],StartMinute[],EndMinute[],DayType
3,5,Cumulative Day of Simulation[],Month[],Day of Month[],DST Indicator[1=yes 0=no],DayType  ! When Daily Meters Requested
4,2,Cumulative Days of Simulation[],Month[]  ! When Monthly Meters Requested
5,1,Cumulative Days of Simulation[] ! When Run Period Meters Requested
6,1,Calendar Year of Simulation[] ! When Annual Meters Requested
24,1,ExteriorLights:Electricity [J] !Hourly
92,1,EnergyTransfer:Building [J] !Hourly
80,1,EnergyTransfer:Facility [J] !Hourly
End of Data Dictionary
1,DENVER CENTENNIAL  GOLDEN   N ANN HTG 99% CONDNS DB,  37.62,-122.40,  -8.00,   2.00
2,1,12,21, 0, 1, 0.00,60.00,WinterDesignDay
24,18900000.0
80,0.0
92,0.0
2,1,12,21, 0, 2, 0.00,60.00,WinterDesignDay
24,18900000.0
80,0.0
92,0.0
2,1,12,21, 0, 3, 0.00,60.00,WinterDesignDay
24,18900000.0
80,0.0
92,0.0
2,1,12,21, 0, 4, 0.00,60.00,WinterDesignDay
24,18900000.0
80,0.0
92,0.0
2,1,12,21, 0, 5, 0.00,60.00,WinterDesignDay
24,18900000.0
80,0.0
92,0.0
2,1,12,21, 0, 6, 0.00,60.00,WinterDesignDay
24,18900000.0
80,0.0
92,0.0
2,1,12,21, 0, 7, 0.00,60.00,WinterDesignDay
24,18900000.0
80,0.0
92,0.0
2,1,12,21, 0, 8, 0.00,60.00,WinterDesignDay
24,4725000.0
80,0.0
92,0.0
2,1,12,21, 0, 9, 0.00,60.00,WinterDesignDay
24,0.0
80,0.0
92,0.0
2,1,12,21, 0,10, 0.00,60.00,WinterDesignDay
24,0.0
80,0.0
92,0.0
2,1,12,21, 0,11, 0.00,60.00,WinterDesignDay
24,0.0
80,0.0
92,0.0
2,1,12,21, 0,12, 0.00,60.00,WinterDesignDay
24,0.0
80,0.0
92,0.0
2,1,12,21, 0,13, 0.00,60.00,WinterDesignDay
24,0.0
80,0.0
92,0.0
2,1,12,21, 0,14, 0.00,60.00,WinterDesignDay
24,0.0
80,0.0
92,0.0
2,1,12,21, 0,15, 0.00,60.00,WinterDesignDay
24,0.0
80,0.0
92,0.0
2,1,12,21, 0,16, 0.00,60.00,WinterDesignDay
24,0.0
80,0.0
92,0.0
2,1,12,21, 0,17, 0.00,60.00,WinterDesignDay
24,4725000.0
80,0.0
92,0.0
2,1,12,21, 0,18, 0.00,60.00,WinterDesignDay
24,18900000.0
80,0.0
92,0.0
2,1,12,21, 0,19, 0.00,60.00,WinterDesignDay
24,18900000.0
80,0.0
92,0.0
2,1,12,21, 0,20, 0.00,60.00,WinterDesignDay
24,18900000.0
80,0.0
92,0.0
2,1,12,21, 0,21, 0.00,60.00,WinterDesignDay
24,18900000.0
80,0.0
92,0.0
2,1,12,21, 0,22, 0.00,60.00,WinterDesignDay
24,18900000.0
80,0.0
92,0.0
2,1,12,21, 0,23, 0.00,60.00,WinterDesignDay
24,18900000.0
80,0.0
92,0.0
2,1,12,21, 0,24, 0.00,60.00,WinterDesignDay
24,18900000.0
80,0.0
92,0.0
1,DENVER CENTENNIAL  GOLDEN   N ANN CLG 1% CONDNS DB=>MWB,  37.62,-122.40,  -8.00,   2.00
2,1, 7,21, 0, 1, 0.00,60.00,SummerDesignDay
24,18900000.0
80,0.0
92,0.0
2,1, 7,21, 0, 2, 0.00,60.00,SummerDesignDay
24,18900000.0
80,0.0
92,0.0
2,1, 7,21, 0, 3, 0.00,60.00,SummerDesignDay
24,18900000.0
80,0.0
92,0.0
2,1, 7,21, 0, 4, 0.00,60.00,SummerDesignDay
24,18900000.0
80,0.0
92,0.0
2,1, 7,21, 0, 5, 0.00,60.00,SummerDesignDay
24,18900000.0
80,0.0
92,0.0
2,1, 7,21, 0, 6, 0.00,60.00,SummerDesignDay
24,0.0
80,0.0
92,0.0
2,1, 7,21, 0, 7, 0.00,60.00,SummerDesignDay
24,0.0
80,0.0
92,0.0
2,1, 7,21, 0, 8, 0.00,60.00,SummerDesignDay
24,0.0
80,0.0
92,0.0
2,1, 7,21, 0, 9, 0.00,60.00,SummerDesignDay
24,0.0
80,0.0
92,0.0
2,1, 7,21, 0,10, 0.00,60.00,SummerDesignDay
24,0.0
80,0.0
92,0.0
2,1, 7,21, 0,11, 0.00,60.00,SummerDesignDay
24,0.0
80,0.0
92,0.0
2,1, 7,21, 0,12, 0.00,60.00,SummerDesignDay
24,0.0
80,0.0
92,0.0
2,1, 7,21, 0,13, 0.00,60.00,SummerDesignDay
24,0.0
80,0.0
92,0.0
2,1, 7,21, 0,14, 0.00,60.00,SummerDesignDay
24,0.0
80,0.0
92,0.0
2,1, 7,21, 0,15, 0.00,60.00,SummerDesignDay
24,0.0
80,0.0
92,0.0
2,1, 7,21, 0,16, 0.00,60.00,SummerDesignDay
24,0.0
80,0.0
92,0.0
2,1, 7,21, 0,17, 0.00,60.00,SummerDesignDay
24,0.0
80,0.0
92,0.0
2,1, 7,21, 0,18, 0.00,60.00,SummerDesignDay
24,0.0
80,0.0
92,0.0
2,1, 7,21, 0,19, 0.00,60.00,SummerDesignDay
24,0.0
80,0.0
92,0.0
2,1, 7,21, 0,20, 0.00,60.00,SummerDesignDay
24,14175000.0
80,0.0
92,0.0
2,1, 7,21, 0,21, 0.00,60.00,SummerDesignDay
24,18900000.0
80,0.0
92,0.0
2,1, 7,21, 0,22, 0.00,60.00,SummerDesignDay
24,18900000.0
80,0.0
92,0.0
2,1, 7,21, 0,23, 0.00,60.00,SummerDesignDay
24,18900000.0
80,0.0
92,0.0
2,1, 7,21, 0,24, 0.00,60.00,SummerDesignDay
24,18900000.0
80,0.0
92,0.0
1,San Francisco Intl Ap CA USA TMY3 WMO#=724940,  37.62,-122.40,  -8.00,   2.00
2,1, 1, 1, 0, 1, 0.00,60.00,Tuesday
24,18900000.0
80,0.0
92,0.0
2,1, 1, 1, 0, 2, 0.00,60.00,Tuesday
24,18900000.0
80,0.0
92,0.0
2,1, 1, 1, 0, 3, 0.00,60.00,Tuesday
24,18900000.0
80,0.0
92,0.0
2,1, 1, 1, 0, 4, 0.00,60.00,Tuesday
24,18900000.0
80,0.0
92,0.0
2,1, 1, 1, 0, 5, 0.00,60.00,Tuesday
24,18900000.0
80,0.0
92,0.0
2,1, 1, 1, 0, 6, 0.00,60.00,Tuesday
24,18900000.0
80,0.0
92,0.0
2,1, 1, 1, 0, 7, 0.00,60.00,Tuesday
24,18900000.0
80,0.0
92,0.0
2,1, 1, 1, 0, 8, 0.00,60.00,Tuesday
24,4725000.0
80,0.0
92,0.0
2,1, 1, 1, 0, 9, 0.00,60.00,Tuesday
24,0.0
80,0.0
92,0.0
2,1, 1, 1, 0,10, 0.00,60.00,Tuesday
24,0.0
80,0.0
92,0.0
2,1, 1, 1, 0,11, 0.00,60.00,Tuesday
24,0.0
80,0.0
92,0.0
2,1, 1, 1, 0,12, 0.00,60.00,Tuesday
24,0.0
80,0.0
92,0.0
2,1, 1, 1, 0,13, 0.00,60.00,Tuesday
24,0.0
80,0.0
92,0.0
2,1, 1, 1, 0,14, 0.00,60.00,Tuesday
24,0.0
80,0.0
92,0.0
2,1, 1, 1, 0,15, 0.00,60.00,Tuesday
24,0.0
80,0.0
92,0.0
2,1, 1, 1, 0,16, 0.00,60.00,Tuesday
24,0.0
80,0.0
92,0.0
2,1, 1, 1, 0,17, 0.00,60.00,Tuesday
24,4725000.0
80,0.0
92,0.0
2,1, 1, 1, 0,18, 0.00,60.00,Tuesday
24,18900000.0
80,0.0
92,0.0
2,1, 1, 1, 0,19, 0.00,60.00,Tuesday
24,18900000.0
80,0.0
92,0.0
2,1, 1, 1, 0,20, 0.00,60.00,Tuesday
24,18900000.0
80,0.0
92,0.0
2,1, 1, 1, 0,21, 0.00,60.00,Tuesday
24,18900000.0
80,0.0
92,0.0
2,1, 1, 1, 0,22, 0.00,60.00,Tuesday
24,18900000.0
80,0.0
92,0.0
2,1, 1, 1, 0,23, 0.00,60.00,Tuesday
24,18900000.0
80,0.0
92,0.0
2,1, 1, 1, 0,24, 0.00,60.00,Tuesday
24,18900000.0
80,0.0
92,0.0
2,2, 1, 2, 0, 1, 0.00,60.00,Wednesday
24,18900000.0
80,0.0
92,0.0
2,2, 1, 2, 0, 2, 0.00,60.00,Wednesday
24,18900000.0
80,0.0
92,0.0
2,2, 1, 2, 0, 3, 0.00,60.00,Wednesday
24,18900000.0
80,0.0
92,0.0
2,2, 1, 2, 0, 4, 0.00,60.00,Wednesday
24,18900000.0
80,0.0
92,0.0
2,2, 1, 2, 0, 5, 0.00,60.00,Wednesday
24,18900000.0
80,0.0
92,0.0
2,2, 1, 2, 0, 6, 0.00,60.00,Wednesday
24,18900000.0
80,0.0
92,0.0
2,2, 1, 2, 0, 7, 0.00,60.00,Wednesday
24,18900000.0
80,0.0
92,0.0
2,2, 1, 2, 0, 8, 0.00,60.00,Wednesday
24,4725000.0
80,0.0
92,0.0
2,2, 1, 2, 0, 9, 0.00,60.00,Wednesday
24,0.0
80,0.0
92,0.0
2,2, 1, 2, 0,10, 0.00,60.00,Wednesday
24,0.0
80,0.0
92,0.0
2,2, 1, 2, 0,11, 0.00,60.00,Wednesday
24,0.0
80,0.0
92,0.0
2,2, 1, 2, 0,12, 0.00,60.00,Wednesday
24,0.0
80,0.0
92,0.0
2,2, 1, 2, 0,13, 0.00,60.00,Wednesday
24,0.0
80,0.0
92,0.0
2,2, 1, 2, 0,14, 0.00,60.00,Wednesday
24,0.0
80,0.0
92,0.0
2,2, 1, 2, 0,15, 0.00,60.00,Wednesday
24,0.0
80,0.0
92,0.0
2,2, 1, 2, 0,16, 0.00,60.00,Wednesday
24,0.0
80,0.0
92,0.0
2,2, 1, 2, 0,17, 0.00,60.00,Wednesday
24,4725000.0
80,0.0
92,0.0
2,2, 1, 2, 0,18, 0.00,60.00,Wednesday
24,18900000.0
80,0.0
92,0.0
2,2, 1, 2, 0,19, 0.00,60.00,Wednesday
24,18900000.0
80,0.0
92,0.0
2,2, 1, 2, 0,20, 0.00,60.00,Wednesday
24,18900000.0
80,0.0
92,0.0
2,2, 1, 2, 0,21, 0.00,60.00,Wednesday
24,18900000.0
80,0.0
92,0.0
2,2, 1, 2, 0,22, 0.00,60.00,Wednesday
24,18900000.0
80,0.0
92,0.0
2,2, 1, 2, 0,23, 0.00,60.00,Wednesday
24,18900000.0
80,0.0
92,0.0
2,2, 1, 2, 0,24, 0.00,60.00,Wednesday
24,18900000.0
80,0.0
92,0.0
2,3, 1, 3, 0, 1, 0.00,60.00,Thursday
24,18900000.0
80,0.0
92,0.0
2,3, 1, 3, 0, 2, 0.00,60.00,Thursday
24,18900000.0
80,0.0
92,0.0
2,3, 1, 3, 0, 3, 0.00,60.00,Thursday
24,18900000.0
80,0.0
92,0.0
2,3, 1, 3, 0, 4, 0.00,60.00,Thursday
24,18900000.0
80,0.0
92,0.0
2,3, 1, 3, 0, 5, 0.00,60.00,Thursday
24,18900000.0
80,0.0
92,0.0
2,3, 1, 3, 0, 6, 0.00,60.00,Thursday
24,18900000.0
80,0.0
92,0.0
2,3, 1, 3, 0, 7, 0.00,60.00,Thursday
24,18900000.0
80,0.0
92,0.0
2,3, 1, 3, 0, 8, 0.00,60.00,Thursday
24,4725000.0
80,0.0
92,0.0
2,3, 1, 3, 0, 9, 0.00,60.00,Thursday
24,0.0
80,0.0
92,0.0
2,3, 1, 3, 0,10, 0.00,60.00,Thursday
24,0.0
80,0.0
92,0.0
2,3, 1, 3, 0,11, 0.00,60.00,Thursday
24,0.0
80,0.0
92,0.0
2,3, 1, 3, 0,12, 0.00,60.00,Thursday
24,0.0
80,0.0
92,0.0
2,3, 1, 3, 0,13, 0.00,60.00,Thursday
24,0.0
80,0.0
92,0.0
2,3, 1, 3, 0,14, 0.00,60.00,Thursday
24,0.0
80,0.0
92,0.0
2,3, 1, 3, 0,15, 0.00,60.00,Thursday
24,0.0
80,0.0
92,0.0
2,3, 1, 3, 0,16, 0.00,60.00,Thursday
24,0.0
80,0.0
92,0.0
2,3, 1, 3, 0,17, 0.00,60.00,Thursday
24,4725000.0
80,0.0
92,0.0
2,3, 1, 3, 0,18, 0.00,60.00,Thursday
24,18900000.0
80,0.0
92,0.0
2,3, 1, 3, 0,19, 0.00,60.00,Thursday
24,18900000.0
80,0.0
92,0.0
2,3, 1, 3, 0,20, 0.00,60.00,Thursday
24,18900000.0
80,0.0
92,0.0
2,3, 1, 3, 0,21, 0.00,60.00,Thursday
24,18900000.0
80,0.0
92,0.0
2,3, 1, 3, 0,22, 0.00,60.00,Thursday
24,18900000.0
80,0.0
92,0.0
2,3, 1, 3, 0,23, 0.00,60.00,Thursday
24,18900000.0
80,0.0
92,0.0
2,3, 1, 3, 0,24, 0.00,60.00,Thursday
24,18900000.0
80,0.0
92,0.0
2,4, 1, 4, 0, 1, 0.00,60.00,Friday
24,18900000.0
80,0.0
92,0.0
2,4, 1, 4, 0, 2, 0.00,60.00,Friday
24,18900000.0
80,0.0
92,0.0
2,4, 1, 4, 0, 3, 0.00,60.00,Friday
24,18900000.0
80,0.0
92,0.0
2,4, 1, 4, 0, 4, 0.00,60.00,Friday
24,18900000.0
80,0.0
92,0.0
2,4, 1, 4, 0, 5, 0.00,60.00,Friday
24,18900000.0
80,0.0
92,0.0
2,4, 1, 4, 0, 6, 0.00,60.00,Friday
24,18900000.0
80,0.0
92,0.0
2,4, 1, 4, 0, 7, 0.00,60.00,Friday
24,18900000.0
80,0.0
92,0.0
2,4, 1, 4, 0, 8, 0.00,60.00,Friday
24,9450000.0
80,0.0
92,0.0
2,4, 1, 4, 0, 9, 0.00,60.00,Friday
24,0.0
80,0.0
92,0.0
2,4, 1, 4, 0,10, 0.00,60.00,Friday
24,0.0
80,0.0
92,0.0
2,4, 1, 4, 0,11, 0.00,60.00,Friday
24,0.0
80,0.0
92,0.0
2,4, 1, 4, 0,12, 0.00,60.00,Friday
24,0.0
80,0.0
92,0.0
2,4, 1, 4, 0,13, 0.00,60.00,Friday
24,0.0
80,0.0
92,0.0
2,4, 1, 4, 0,14, 0.00,60.00,Friday
24,0.0
80,0.0
92,0.0
2,4, 1, 4, 0,15, 0.00,60.00,Friday
24,0.0
80,0.0
92,0.0
2,4, 1, 4, 0,16, 0.00,60.00,Friday
24,0.0
80,0.0
92,0.0
2,4, 1, 4, 0,17, 0.00,60.00,Friday
24,4725000.0
80,0.0
92,0.0
2,4, 1, 4, 0,18, 0.00,60.00,Friday
24,18900000.0
80,0.0
92,0.0
2,4, 1, 4, 0,19, 0.00,60.00,Friday
24,18900000.0
80,0.0
92,0.0
2,4, 1, 4, 0,20, 0.00,60.00,Friday
24,18900000.0
80,0.0
92,0.0
2,4, 1, 4, 0,21, 0.00,60.00,Friday
24,18900000.0
80,0.0
92,0.0
2,4, 1, 4, 0,22, 0.00,60.00,Friday
24,18900000.0
80,0.0
92,0.0
2,4, 1, 4, 0,23, 0.00,60.00,Friday
24,18900000.0
80,0.0
92,0.0
2,4, 1, 4, 0,24, 0.00,60.00,Friday
24,18900000.0
80,0.0
92,0.0
2,5, 1, 5, 0, 1, 0.00,60.00,Saturday
24,18900000.0
80,0.0
92,0.0
2,5, 1, 5, 0, 2, 0.00,60.00,Saturday
24,18900000.0
80,0.0
92,0.0
2,5, 1, 5, 0, 3, 0.00,60.00,Saturday
24,18900000.0
80,0.0
92,0.0
2,5, 1, 5, 0, 4, 0.00,60.00,Saturday
24,18900000.0
80,0.0
92,0.0
2,5, 1, 5, 0, 5, 0.00,60.00,Saturday
24,18900000.0
80,0.0
92,0.0
2,5, 1, 5, 0, 6, 0.00,60.00,Saturday
24,18900000.0
80,0.0
92,0.0
2,5, 1, 5, 0, 7, 0.00,60.00,Saturday
24,18900000.0
80,0.0
92,0.0
2,5, 1, 5, 0, 8, 0.00,60.00,Saturday
24,9450000.0
80,0.0
92,0.0
2,5, 1, 5, 0, 9, 0.00,60.00,Saturday
24,0.0
80,0.0
92,0.0
2,5, 1, 5, 0,10, 0.00,60.00,Saturday
24,0.0
80,0.0
92,0.0
2,5, 1, 5, 0,11, 0.00,60.00,Saturday
24,0.0
80,0.0
92,0.0
2,5, 1, 5, 0,12, 0.00,60.00,Saturday
24,0.0
80,0.0
92,0.0
2,5, 1, 5, 0,13, 0.00,60.00,Saturday
24,0.0
80,0.0
92,0.0
2,5, 1, 5, 0,14, 0.00,60.00,Saturday
24,0.0
80,0.0
92,0.0
2,5, 1, 5, 0,15, 0.00,60.00,Saturday
24,0.0
80,0.0
92,0.0
2,5, 1, 5, 0,16, 0.00,60.00,Saturday
24,0.0
80,0.0
92,0.0
2,5, 1, 5, 0,17, 0.00,60.00,Saturday
24,4725000.0
80,0.0
92,0.0
2,5, 1, 5, 0,18, 0.00,60.00,Saturday
24,18900000.0
80,0.0
92,0.0
2,5, 1, 5, 0,19, 0.00,60.00,Saturday
24,18900000.0
80,0.0
92,0.0
2,5, 1, 5, 0,20, 0.00,60.00,Saturday
24,18900000.0
80,0.0
92,0.0
2,5, 1, 5, 0,21, 0.00,60.00,Saturday
24,18900000.0
80,0.0
92,0.0
2,5, 1, 5, 0,22, 0.00,60.00,Saturday
24,18900000.0
80,0.0
92,0.0
2,5, 1, 5, 0,23, 0.00,60.00,Saturday
24,18900000.0
80,0.0
92,0.0
2,5, 1, 5, 0,24, 0.00,60.00,Saturday
24,18900000.0
80,0.0
92,0.0
2,6, 1, 6, 0, 1, 0.00,60.00,Sunday
24,18900000.0
80,0.0
92,0.0
2,6, 1, 6, 0, 2, 0.00,60.00,Sunday
24,18900000.0
80,0.0
92,0.0
2,6, 1, 6, 0, 3, 0.00,60.00,Sunday
24,18900000.0
80,0.0
92,0.0
2,6, 1, 6, 0, 4, 0.00,60.00,Sunday
24,18900000.0
80,0.0
92,0.0
2,6, 1, 6, 0, 5, 0.00,60.00,Sunday
24,18900000.0
80,0.0
92,0.0
2,6, 1, 6, 0, 6, 0.00,60.00,Sunday
24,18900000.0
80,0.0
92,0.0
2,6, 1, 6, 0, 7, 0.00,60.00,Sunday
24,18900000.0
80,0.0
92,0.0
2,6, 1, 6, 0, 8, 0.00,60.00,Sunday
24,9450000.0
80,0.0
92,0.0
2,6, 1, 6, 0, 9, 0.00,60.00,Sunday
24,0.0
80,0.0
92,0.0
2,6, 1, 6, 0,10, 0.00,60.00,Sunday
24,0.0
80,0.0
92,0.0
2,6, 1, 6, 0,11, 0.00,60.00,Sunday
24,0.0
80,0.0
92,0.0
2,6, 1, 6, 0,12, 0.00,60.00,Sunday
24,0.0
80,0.0
92,0.0
2,6, 1, 6, 0,13, 0.00,60.00,Sunday
24,0.0
80,0.0
92,0.0
2,6, 1, 6, 0,14, 0.00,60.00,Sunday
24,0.0
80,0.0
92,0.0
2,6, 1, 6, 0,15, 0.00,60.00,Sunday
24,0.0
80,0.0
92,0.0
2,6, 1, 6, 0,16, 0.00,60.00,Sunday
24,0.0
80,0.0
92,0.0
2,6, 1, 6, 0,17, 0.00,60.00,Sunday
24,0.0
80,0.0
92,0.0
2,6, 1, 6, 0,18, 0.00,60.00,Sunday
24,18900000.0
80,0.0
92,0.0
2,6, 1, 6, 0,19, 0.00,60.00,Sunday
24,18900000.0
80,0.0
92,0.0
2,6, 1, 6, 0,20, 0.00,60.00,Sunday
24,18900000.0
80,0.0
92,0.0
2,6, 1, 6, 0,21, 0.00,60.00,Sunday
24,18900000.0
80,0.0
92,0.0
2,6, 1, 6, 0,22, 0.00,60.00,Sunday
24,18900000.0
80,0.0
92,0.0
2,6, 1, 6, 0,23, 0.00,60.00,Sunday
24,18900000.0
80,0.0
92,0.0
2,6, 1, 6, 0,24, 0.00,60.00,Sunday
24,18900000.0
80,0.0
92,0.0
2,7, 1, 7, 0, 1, 0.00,60.00,Monday
24,18900000.0
80,0.0
92,0.0
2,7, 1, 7, 0, 2, 0.00,60.00,Monday
24,18900000.0
80,0.0
92,0.0
2,7, 1, 7, 0, 3, 0.00,60.00,Monday
24,18900000.0
80,0.0
92,0.0
2,7, 1, 7, 0, 4, 0.00,60.00,Monday
24,18900000.0
80,0.0
92,0.0
2,7, 1, 7, 0, 5, 0.00,60.00,Monday
24,18900000.0
80,0.0
92,0.0
2,7, 1, 7, 0, 6, 0.00,60.00,Monday
24,18900000.0
80,0.0
92,0.0
2,7, 1, 7, 0, 7, 0.00,60.00,Monday
24,18900000.0
80,0.0
92,0.0
2,7, 1, 7, 0, 8, 0.00,60.00,Monday
24,9450000.0
80,0.0
92,0.0
2,7, 1, 7, 0, 9, 0.00,60.00,Monday
24,0.0
80,0.0
92,0.0
2,7, 1, 7, 0,10, 0.00,60.00,Monday
24,0.0
80,0.0
92,0.0
2,7, 1, 7, 0,11, 0.00,60.00,Monday
24,0.0
80,0.0
92,0.0
2,7, 1, 7, 0,12, 0.00,60.00,Monday
24,0.0
80,0.0
92,0.0
2,7, 1, 7, 0,13, 0.00,60.00,Monday
24,0.0
80,0.0
92,0.0
2,7, 1, 7, 0,14, 0.00,60.00,Monday
24,0.0
80,0.0
92,0.0
2,7, 1, 7, 0,15, 0.00,60.00,Monday
24,0.0
80,0.0
92,0.0
2,7, 1, 7, 0,16, 0.00,60.00,Monday
24,0.0
80,0.0
92,0.0
2,7, 1, 7, 0,17, 0.00,60.00,Monday
24,0.0
80,0.0
92,0.0
2,7, 1, 7, 0,18, 0.00,60.00,Monday
24,18900000.0
80,0.0
92,0.0
2,7, 1, 7, 0,19, 0.00,60.00,Monday
24,18900000.0
80,0.0
92,0.0
2,7, 1, 7, 0,20, 0.00,60.00,Monday
24,18900000.0
80,0.0
92,0.0
2,7, 1, 7, 0,21, 0.00,60.00,Monday
24,18900000.0
80,0.0
92,0.0
2,7, 1, 7, 0,22, 0.00,60.00,Monday
24,18900000.0
80,0.0
92,0.0
2,7, 1, 7, 0,23, 0.00,60.00,Monday
24,18900000.0
80,0.0
92,0.0
2,7, 1, 7, 0,24, 0.00,60.00,Monday
24,18900000.0
80,0.0
92,0.0
2,8, 1, 8, 0, 1, 0.00,60.00,Tuesday
24,18900000.0
80,0.0
92,0.0
2,8, 1, 8, 0, 2, 0.00,60.00,Tuesday
24,18900000.0
80,0.0
92,0.0
2,8, 1, 8, 0, 3, 0.00,60.00,Tuesday
24,18900000.0
80,0.0
92,0.0
2,8, 1, 8, 0, 4, 0.00,60.00,Tuesday
24,18900000.0
80,0.0
92,0.0
2,8, 1, 8, 0, 5, 0.00,60.00,Tuesday
24,18900000.0
80,0.0
92,0.0
2,8, 1, 8, 0, 6, 0.00,60.00,Tuesday
24,18900000.0
80,0.0
92,0.0
2,8, 1, 8, 0, 7, 0.00,60.00,Tuesday
24,18900000.0
80,0.0
92,0.0
2,8, 1, 8, 0, 8, 0.00,60.00,Tuesday
24,9450000.0
80,0.0
92,0.0
2,8, 1, 8, 0, 9, 0.00,60.00,Tuesday
24,0.0
80,0.0
92,0.0
2,8, 1, 8, 0,10, 0.00,60.00,Tuesday
24,0.0
80,0.0
92,0.0
2,8, 1, 8, 0,11, 0.00,60.00,Tuesday
24,0.0
80,0.0
92,0.0
2,8, 1, 8, 0,12, 0.00,60.00,Tuesday
24,0.0
80,0.0
92,0.0
2,8, 1, 8, 0,13, 0.00,60.00,Tuesday
24,0.0
80,0.0
92,0.0
2,8, 1, 8, 0,14, 0.00,60.00,Tuesday
24,0.0
80,0.0
92,0.0
2,8, 1, 8, 0,15, 0.00,60.00,Tuesday
24,0.0
80,0.0
92,0.0
2,8, 1, 8, 0,16, 0.00,60.00,Tuesday
24,0.0
80,0.0
92,0.0
2,8, 1, 8, 0,17, 0.00,60.00,Tuesday
24,0.0
80,0.0
92,0.0
2,8, 1, 8, 0,18, 0.00,60.00,Tuesday
24,18900000.0
80,0.0
92,0.0
2,8, 1, 8, 0,19, 0.00,60.00,Tuesday
24,18900000.0
80,0.0
92,0.0
2,8, 1, 8, 0,20, 0.00,60.00,Tuesday
24,18900000.0
80,0.0
92,0.0
2,8, 1, 8, 0,21, 0.00,60.00,Tuesday
24,18900000.0
80,0.0
92,0.0
2,8, 1, 8, 0,22, 0.00,60.00,Tuesday
24,18900000.0
80,0.0
92,0.0
2,8, 1, 8, 0,23, 0.00,60.00,Tuesday
24,18900000.0
80,0.0
92,0.0
2,8, 1, 8, 0,24, 0.00,60.00,Tuesday
24,18900000.0
80,0.0
92,0.0
2,9, 1, 9, 0, 1, 0.00,60.00,Wednesday
24,18900000.0
80,0.0
92,0.0
2,9, 1, 9, 0, 2, 0.00,60.00,Wednesday
24,18900000.0
80,0.0
92,0.0
2,9, 1, 9, 0, 3, 0.00,60.00,Wednesday
24,18900000.0
80,0.0
92,0.0
2,9, 1, 9, 0, 4, 0.00,60.00,Wednesday
24,18900000.0
80,0.0
92,0.0
2,9, 1, 9, 0, 5, 0.00,60.00,Wednesday
24,18900000.0
80,0.0
92,0.0
2,9, 1, 9, 0, 6, 0.00,60.00,Wednesday
24,18900000.0
80,0.0
92,0.0
2,9, 1, 9, 0, 7, 0.00,60.00,Wednesday
24,18900000.0
80,0.0
92,0.0
2,9, 1, 9, 0, 8, 0.00,60.00,Wednesday
24,4725000.0
80,0.0
92,0.0
2,9, 1, 9, 0, 9, 0.00,60.00,Wednesday
24,0.0
80,0.0
92,0.0
2,9, 1, 9, 0,10, 0.00,60.00,Wednesday
24,0.0
80,0.0
92,0.0
2,9, 1, 9, 0,11, 0.00,60.00,Wednesday
24,0.0
80,0.0
92,0.0
2,9, 1, 9, 0,12, 0.00,60.00,Wednesday
24,0.0
80,0.0
92,0.0
2,9, 1, 9, 0,13, 0.00,60.00,Wednesday
24,0.0
80,0.0
92,0.0
2,9, 1, 9, 0,14, 0.00,60.00,Wednesday
24,0.0
80,0.0
92,0.0
2,9, 1, 9, 0,15, 0.00,60.00,Wednesday
24,0.0
80,0.0
92,0.0
2,9, 1, 9, 0,16, 0.00,60.00,Wednesday
24,0.0
80,0.0
92,0.0
2,9, 1, 9, 0,17, 0.00,60.00,Wednesday
24,0.0
80,0.0
92,0.0
2,9, 1, 9, 0,18, 0.00,60.00,Wednesday
24,18900000.0
80,0.0
92,0.0
2,9, 1, 9, 0,19, 0.00,60.00,Wednesday
24,18900000.0
80,0.0
92,0.0
2,9, 1, 9, 0,20, 0.00,60.00,Wednesday
24,18900000.0
80,0.0
92,0.0
2,9, 1, 9, 0,21, 0.00,60.00,Wednesday
24,18900000.0
80,0.0
92,0.0
2,9, 1, 9, 0,22, 0.00,60.00,Wednesday
24,18900000.0
80,0.0
92,0.0
2,9, 1, 9, 0,23, 0.00,60.00,Wednesday
24,18900000.0
80,0.0
92,0.0
2,9, 1, 9, 0,24, 0.00,60.00,Wednesday
24,18900000.0
80,0.0
92,0.0
2,10, 1,10, 0, 1, 0.00,60.00,Thursday
24,18900000.0
80,0.0
92,0.0
2,10, 1,10, 0, 2, 0.00,60.00,Thursday
24,18900000.0
80,0.0
92,0.0
2,10, 1,10, 0, 3, 0.00,60.00,Thursday
24,18900000.0
80,0.0
92,0.0
2,10, 1,10, 0, 4, 0.00,60.00,Thursday
24,18900000.0
80,0.0
92,0.0
2,10, 1,10, 0, 5, 0.00,60.00,Thursday
24,18900000.0
80,0.0
92,0.0
2,10, 1,10, 0, 6, 0.00,60.00,Thursday
24,18900000.0
80,0.0
92,0.0
2,10, 1,10, 0, 7, 0.00,60.00,Thursday
24,18900000.0
80,0.0
92,0.0
2,10, 1,10, 0, 8, 0.00,60.00,Thursday
24,4725000.0
80,0.0
92,0.0
2,10, 1,10, 0, 9, 0.00,60.00,Thursday
24,0.0
80,0.0
92,0.0
2,10, 1,10, 0,10, 0.00,60.00,Thursday
24,0.0
80,0.0
92,0.0
2,10, 1,10, 0,11, 0.00,60.00,Thursday
24,0.0
80,0.0
92,0.0
2,10, 1,10, 0,12, 0.00,60.00,Thursday
24,0.0
80,0.0
92,0.0
2,10, 1,10, 0,13, 0.00,60.00,Thursday
24,0.0
80,0.0
92,0.0
2,10, 1,10, 0,14, 0.00,60.00,Thursday
24,0.0
80,0.0
92,0.0
2,10, 1,10, 0,15, 0.00,60.00,Thursday
24,0.0
80,0.0
92,0.0
2,10, 1,10, 0,16, 0.00,60.00,Thursday
24,0.0
80,0.0
92,0.0
2,10, 1,10, 0,17, 0.00,60.00,Thursday
24,0.0
80,0.0
92,0.0
2,10, 1,10, 0,18, 0.00,60.00,Thursday
24,18900000.0
80,0.0
92,0.0
2,10, 1,10, 0,19, 0.00,60.00,Thursday
24,18900000.0
80,0.0
92,0.0
2,10, 1,10, 0,20, 0.00,60.00,Thursday
24,18900000.0
80,0.0
92,0.0
2,10, 1,10, 0,21, 0.00,60.00,Thursday
24,18900000.0
80,0.0
92,0.0
2,10, 1,10, 0,22, 0.00,60.00,Thursday
24,18900000.0
80,0.0
92,0.0
2,10, 1,10, 0,23, 0.00,60.00,Thursday
24,18900000.0
80,0.0
92,0.0
2,10, 1,10, 0,24, 0.00,60.00,Thursday
24,18900000.0
80,0.0
92,0.0
2,11, 1,11, 0, 1, 0.00,60.00,Friday
24,18900000.0
80,0.0
92,0.0
2,11, 1,11, 0, 2, 0.00,60.00,Friday
24,18900000.0
80,0.0
92,0.0
2,11, 1,11, 0, 3, 0.00,60.00,Friday
24,18900000.0
80,0.0
92,0.0
2,11, 1,11, 0, 4, 0.00,60.00,Friday
24,18900000.0
80,0.0
92,0.0
2,11, 1,11, 0, 5, 0.00,60.00,Friday
24,18900000.0
80,0.0
92,0.0
2,11, 1,11, 0, 6, 0.00,60.00,Friday
24,18900000.0
80,0.0
92,0.0
2,11, 1,11, 0, 7, 0.00,60.00,Friday
24,18900000.0
80,0.0
92,0.0
2,11, 1,11, 0, 8, 0.00,60.00,Friday
24,4725000.0
80,0.0
92,0.0
2,11, 1,11, 0, 9, 0.00,60.00,Friday
24,0.0
80,0.0
92,0.0
2,11, 1,11, 0,10, 0.00,60.00,Friday
24,0.0
80,0.0
92,0.0
2,11, 1,11, 0,11, 0.00,60.00,Friday
24,0.0
80,0.0
92,0.0
2,11, 1,11, 0,12, 0.00,60.00,Friday
24,0.0
80,0.0
92,0.0
2,11, 1,11, 0,13, 0.00,60.00,Friday
24,0.0
80,0.0
92,0.0
2,11, 1,11, 0,14, 0.00,60.00,Friday
24,0.0
80,0.0
92,0.0
2,11, 1,11, 0,15, 0.00,60.00,Friday
24,0.0
80,0.0
92,0.0
2,11, 1,11, 0,16, 0.00,60.00,Friday
24,0.0
80,0.0
92,0.0
2,11, 1,11, 0,17, 0.00,60.00,Friday
24,0.0
80,0.0
92,0.0
2,11, 1,11, 0,18, 0.00,60.00,Friday
24,18900000.0
80,0.0
92,0.0
2,11, 1,11, 0,19, 0.00,60.00,Friday
24,18900000.0
80,0.0
92,0.0
2,11, 1,11, 0,20, 0.00,60.00,Friday
24,18900000.0
80,0.0
92,0.0
2,11, 1,11, 0,21, 0.00,60.00,Friday
24,18900000.0
80,0.0
92,0.0
2,11, 1,11, 0,22, 0.00,60.00,Friday
24,18900000.0
80,0.0
92,0.0
2,11, 1,11, 0,23, 0.00,60.00,Friday
24,18900000.0
80,0.0
92,0.0
2,11, 1,11, 0,24, 0.00,60.00,Friday
24,18900000.0
80,0.0
92,0.0
2,12, 1,12, 0, 1, 0.00,60.00,Saturday
24,18900000.0
80,0.0
92,0.0
2,12, 1,12, 0, 2, 0.00,60.00,Saturday
24,18900000.0
80,0.0
92,0.0
2,12, 1,12, 0, 3, 0.00,60.00,Saturday
24,18900000.0
80,0.0
92,0.0
2,12, 1,12, 0, 4, 0.00,60.00,Saturday
24,18900000.0
80,0.0
92,0.0
2,12, 1,12, 0, 5, 0.00,60.00,Saturday
24,18900000.0
80,0.0
92,0.0
2,12, 1,12, 0, 6, 0.00,60.00,Saturday
24,18900000.0
80,0.0
92,0.0
2,12, 1,12, 0, 7, 0.00,60.00,Saturday
24,18900000.0
80,0.0
92,0.0
2,12, 1,12, 0, 8, 0.00,60.00,Saturday
24,4725000.0
80,0.0
92,0.0
2,12, 1,12, 0, 9, 0.00,60.00,Saturday
24,0.0
80,0.0
92,0.0
2,12, 1,12, 0,10, 0.00,60.00,Saturday
24,0.0
80,0.0
92,0.0
2,12, 1,12, 0,11, 0.00,60.00,Saturday
24,0.0
80,0.0
92,0.0
2,12, 1,12, 0,12, 0.00,60.00,Saturday
24,0.0
80,0.0
92,0.0
2,12, 1,12, 0,13, 0.00,60.00,Saturday
24,0.0
80,0.0
92,0.0
2,12, 1,12, 0,14, 0.00,60.00,Saturday
24,0.0
80,0.0
92,0.0
2,12, 1,12, 0,15, 0.00,60.00,Saturday
24,0.0
80,0.0
92,0.0
2,12, 1,12, 0,16, 0.00,60.00,Saturday
24,0.0
80,0.0
92,0.0
2,12, 1,12, 0,17, 0.00,60.00,Saturday
24,0.0
80,0.0
92,0.0
2,12, 1,12, 0,18, 0.00,60.00,Saturday
24,18900000.0
80,0.0
92,0.0
2,12, 1,12, 0,19, 0.00,60.00,Saturday
24,18900000.0
80,0.0
92,0.0
2,12, 1,12, 0,20, 0.00,60.00,Saturday
24,18900000.0
80,0.0
92,0.0
2,12, 1,12, 0,21, 0.00,60.00,Saturday
24,18900000.0
80,0.0
92,0.0
2,12, 1,12, 0,22, 0.00,60.00,Saturday
24,18900000.0
80,0.0
92,0.0
2,12, 1,12, 0,23, 0.00,60.00,Saturday
24,18900000.0
80,0.0
92,0.0
2,12, 1,12, 0,24, 0.00,60.00,Saturday
24,18900000.0
80,0.0
92,0.0
2,13, 1,13, 0, 1, 0.00,60.00,Sunday
24,18900000.0
80,0.0
92,0.0
2,13, 1,13, 0, 2, 0.00,60.00,Sunday
24,18900000.0
80,0.0
92,0.0
2,13, 1,13, 0, 3, 0.00,60.00,Sunday
24,18900000.0
80,0.0
92,0.0
2,13, 1,13, 0, 4, 0.00,60.00,Sunday
24,18900000.0
80,0.0
92,0.0
2,13, 1,13, 0, 5, 0.00,60.00,Sunday
24,18900000.0
80,0.0
92,0.0
2,13, 1,13, 0, 6, 0.00,60.00,Sunday
24,18900000.0
80,0.0
92,0.0
2,13, 1,13, 0, 7, 0.00,60.00,Sunday
24,18900000.0
80,0.0
92,0.0
2,13, 1,13, 0, 8, 0.00,60.00,Sunday
24,4725000.0
80,0.0
92,0.0
2,13, 1,13, 0, 9, 0.00,60.00,Sunday
24,0.0
80,0.0
92,0.0
2,13, 1,13, 0,10, 0.00,60.00,Sunday
24,0.0
80,0.0
92,0.0
2,13, 1,13, 0,11, 0.00,60.00,Sunday
24,0.0
80,0.0
92,0.0
2,13, 1,13, 0,12, 0.00,60.00,Sunday
24,0.0
80,0.0
92,0.0
2,13, 1,13, 0,13, 0.00,60.00,Sunday
24,0.0
80,0.0
92,0.0
2,13, 1,13, 0,14, 0.00,60.00,Sunday
24,0.0
80,0.0
92,0.0
2,13, 1,13, 0,15, 0.00,60.00,Sunday
24,0.0
80,0.0
92,0.0
2,13, 1,13, 0,16, 0.00,60.00,Sunday
24,0.0
80,0.0
92,0.0
2,13, 1,13, 0,17, 0.00,60.00,Sunday
24,0.0
80,0.0
92,0.0
2,13, 1,13, 0,18, 0.00,60.00,Sunday
24,18900000.0
80,0.0
92,0.0
2,13, 1,13, 0,19, 0.00,60.00,Sunday
24,18900000.0
80,0.0
92,0.0
2,13, 1,13, 0,20, 0.00,60.00,Sunday
24,18900000.0
80,0.0
92,0.0
2,13, 1,13, 0,21, 0.00,60.00,Sunday
24,18900000.0
80,0.0
92,0.0
2,13, 1,13, 0,22, 0.00,60.00,Sunday
24,18900000.0
80,0.0
92,0.0
2,13, 1,13, 0,23, 0.00,60.00,Sunday
24,18900000.0
80,0.0
92,0.0
2,13, 1,13, 0,24, 0.00,60.00,Sunday
24,18900000.0
80,0.0
92,0.0
2,14, 1,14, 0, 1, 0.00,60.00,Monday
24,18900000.0
80,0.0
92,0.0
2,14, 1,14, 0, 2, 0.00,60.00,Monday
24,18900000.0
80,0.0
92,0.0
2,14, 1,14, 0, 3, 0.00,60.00,Monday
24,18900000.0
80,0.0
92,0.0
2,14, 1,14, 0, 4, 0.00,60.00,Monday
24,18900000.0
80,0.0
92,0.0
2,14, 1,14, 0, 5, 0.00,60.00,Monday
24,18900000.0
80,0.0
92,0.0
2,14, 1,14, 0, 6, 0.00,60.00,Monday
24,18900000.0
80,0.0
92,0.0
2,14, 1,14, 0, 7, 0.00,60.00,Monday
24,18900000.0
80,0.0
92,0.0
2,14, 1,14, 0, 8, 0.00,60.00,Monday
24,4725000.0
80,0.0
92,0.0
2,14, 1,14, 0, 9, 0.00,60.00,Monday
24,0.0
80,0.0
92,0.0
2,14, 1,14, 0,10, 0.00,60.00,Monday
24,0.0
80,0.0
92,0.0
2,14, 1,14, 0,11, 0.00,60.00,Monday
24,0.0
80,0.0
92,0.0
2,14, 1,14, 0,12, 0.00,60.00,Monday
24,0.0
80,0.0
92,0.0
2,14, 1,14, 0,13, 0.00,60.00,Monday
24,0.0
80,0.0
92,0.0
2,14, 1,14, 0,14, 0.00,60.00,Monday
24,0.0
80,0.0
92,0.0
2,14, 1,14, 0,15, 0.00,60.00,Monday
24,0.0
80,0.0
92,0.0
2,14, 1,14, 0,16, 0.00,60.00,Monday
24,0.0
80,0.0
92,0.0
2,14, 1,14, 0,17, 0.00,60.00,Monday
24,0.0
80,0.0
92,0.0
2,14, 1,14, 0,18, 0.00,60.00,Monday
24,18900000.0
80,0.0
92,0.0
2,14, 1,14, 0,19, 0.00,60.00,Monday
24,18900000.0
80,0.0
92,0.0
2,14, 1,14, 0,20, 0.00,60.00,Monday
24,18900000.0
80,0.0
92,0.0
2,14, 1,14, 0,21, 0.00,60.00,Monday
24,18900000.0
80,0.0
92,0.0
2,14, 1,14, 0,22, 0.00,60.00,Monday
24,18900000.0
80,0.0
92,0.0
2,14, 1,14, 0,23, 0.00,60.00,Monday
24,18900000.0
80,0.0
92,0.0
2,14, 1,14, 0,24, 0.00,60.00,Monday
24,18900000.0
80,0.0
92,0.0
2,15, 1,15, 0, 1, 0.00,60.00,Tuesday
24,18900000.0
80,0.0
92,0.0
2,15, 1,15, 0, 2, 0.00,60.00,Tuesday
24,18900000.0
80,0.0
92,0.0
2,15, 1,15, 0, 3, 0.00,60.00,Tuesday
24,18900000.0
80,0.0
92,0.0
2,15, 1,15, 0, 4, 0.00,60.00,Tuesday
24,18900000.0
80,0.0
92,0.0
2,15, 1,15, 0, 5, 0.00,60.00,Tuesday
24,18900000.0
80,0.0
92,0.0
2,15, 1,15, 0, 6, 0.00,60.00,Tuesday
24,18900000.0
80,0.0
92,0.0
2,15, 1,15, 0, 7, 0.00,60.00,Tuesday
24,18900000.0
80,0.0
92,0.0
2,15, 1,15, 0, 8, 0.00,60.00,Tuesday
24,4725000.0
80,0.0
92,0.0
2,15, 1,15, 0, 9, 0.00,60.00,Tuesday
24,0.0
80,0.0
92,0.0
2,15, 1,15, 0,10, 0.00,60.00,Tuesday
24,0.0
80,0.0
92,0.0
2,15, 1,15, 0,11, 0.00,60.00,Tuesday
24,0.0
80,0.0
92,0.0
2,15, 1,15, 0,12, 0.00,60.00,Tuesday
24,0.0
80,0.0
92,0.0
2,15, 1,15, 0,13, 0.00,60.00,Tuesday
24,0.0
80,0.0
92,0.0
2,15, 1,15, 0,14, 0.00,60.00,Tuesday
24,0.0
80,0.0
92,0.0
2,15, 1,15, 0,15, 0.00,60.00,Tuesday
24,0.0
80,0.0
92,0.0
2,15, 1,15, 0,16, 0.00,60.00,Tuesday
24,0.0
80,0.0
92,0.0
2,15, 1,15, 0,17, 0.00,60.00,Tuesday
24,0.0
80,0.0
92,0.0
2,15, 1,15, 0,18, 0.00,60.00,Tuesday
24,18900000.0
80,0.0
92,0.0
2,15, 1,15, 0,19, 0.00,60.00,Tuesday
24,18900000.0
80,0.0
92,0.0
2,15, 1,15, 0,20, 0.00,60.00,Tuesday
24,18900000.0
80,0.0
92,0.0
2,15, 1,15, 0,21, 0.00,60.00,Tuesday
24,18900000.0
80,0.0
92,0.0
2,15, 1,15, 0,22, 0.00,60.00,Tuesday
24,18900000.0
80,0.0
92,0.0
2,15, 1,15, 0,23, 0.00,60.00,Tuesday
24,18900000.0
80,0.0
92,0.0
2,15, 1,15, 0,24, 0.00,60.00,Tuesday
24,18900000.0
80,0.0
92,0.0
2,16, 1,16, 0, 1, 0.00,60.00,Wednesday
24,18900000.0
80,0.0
92,0.0
2,16, 1,16, 0, 2, 0.00,60.00,Wednesday
24,18900000.0
80,0.0
92,0.0
2,16, 1,16, 0, 3, 0.00,60.00,Wednesday
24,18900000.0
80,0.0
92,0.0
2,16, 1,16, 0, 4, 0.00,60.00,Wednesday
24,18900000.0
80,0.0
92,0.0
2,16, 1,16, 0, 5, 0.00,60.00,Wednesday
24,18900000.0
80,0.0
92,0.0
2,16, 1,16, 0, 6, 0.00,60.00,Wednesday
24,18900000.0
80,0.0
92,0.0
2,16, 1,16, 0, 7, 0.00,60.00,Wednesday
24,18900000.0
80,0.0
92,0.0
2,16, 1,16, 0, 8, 0.00,60.00,Wednesday
24,4725000.0
80,0.0
92,0.0
2,16, 1,16, 0, 9, 0.00,60.00,Wednesday
24,0.0
80,0.0
92,0.0
2,16, 1,16, 0,10, 0.00,60.00,Wednesday
24,0.0
80,0.0
92,0.0
2,16, 1,16, 0,11, 0.00,60.00,Wednesday
24,0.0
80,0.0
92,0.0
2,16, 1,16, 0,12, 0.00,60.00,Wednesday
24,0.0
80,0.0
92,0.0
2,16, 1,16, 0,13, 0.00,60.00,Wednesday
24,0.0
80,0.0
92,0.0
2,16, 1,16, 0,14, 0.00,60.00,Wednesday
24,0.0
80,0.0
92,0.0
2,16, 1,16, 0,15, 0.00,60.00,Wednesday
24,0.0
80,0.0
92,0.0
2,16, 1,16, 0,16, 0.00,60.00,Wednesday
24,0.0
80,0.0
92,0.0
2,16, 1,16, 0,17, 0.00,60.00,Wednesday
24,0.0
80,0.0
92,0.0
2,16, 1,16, 0,18, 0.00,60.00,Wednesday
24,18900000.0
80,0.0
92,0.0
2,16, 1,16, 0,19, 0.00,60.00,Wednesday
24,18900000.0
80,0.0
92,0.0
2,16, 1,16, 0,20, 0.00,60.00,Wednesday
24,18900000.0
80,0.0
92,0.0
2,16, 1,16, 0,21, 0.00,60.00,Wednesday
24,18900000.0
80,0.0
92,0.0
2,16, 1,16, 0,22, 0.00,60.00,Wednesday
24,18900000.0
80,0.0
92,0.0
2,16, 1,16, 0,23, 0.00,60.00,Wednesday
24,18900000.0
80,0.0
92,0.0
2,16, 1,16, 0,24, 0.00,60.00,Wednesday
24,18900000.0
80,0.0
92,0.0
2,17, 1,17, 0, 1, 0.00,60.00,Thursday
24,18900000.0
80,0.0
92,0.0
2,17, 1,17, 0, 2, 0.00,60.00,Thursday
24,18900000.0
80,0.0
92,0.0
2,17, 1,17, 0, 3, 0.00,60.00,Thursday
24,18900000.0
80,0.0
92,0.0
2,17, 1,17, 0, 4, 0.00,60.00,Thursday
24,18900000.0
80,0.0
92,0.0
2,17, 1,17, 0, 5, 0.00,60.00,Thursday
24,18900000.0
80,0.0
92,0.0
2,17, 1,17, 0, 6, 0.00,60.00,Thursday
24,18900000.0
80,0.0
92,0.0
2,17, 1,17, 0, 7, 0.00,60.00,Thursday
24,18900000.0
80,0.0
92,0.0
2,17, 1,17, 0, 8, 0.00,60.00,Thursday
24,4725000.0
80,0.0
92,0.0
2,17, 1,17, 0, 9, 0.00,60.00,Thursday
24,0.0
80,0.0
92,0.0
2,17, 1,17, 0,10, 0.00,60.00,Thursday
24,0.0
80,0.0
92,0.0
2,17, 1,17, 0,11, 0.00,60.00,Thursday
24,0.0
80,0.0
92,0.0
2,17, 1,17, 0,12, 0.00,60.00,Thursday
24,0.0
80,0.0
92,0.0
2,17, 1,17, 0,13, 0.00,60.00,Thursday
24,0.0
80,0.0
92,0.0
2,17, 1,17, 0,14, 0.00,60.00,Thursday
24,0.0
80,0.0
92,0.0
2,17, 1,17, 0,15, 0.00,60.00,Thursday
24,0.0
80,0.0
92,0.0
2,17, 1,17, 0,16, 0.00,60.00,Thursday
24,0.0
80,0.0
92,0.0
2,17, 1,17, 0,17, 0.00,60.00,Thursday
24,0.0
80,0.0
92,0.0
2,17, 1,17, 0,18, 0.00,60.00,Thursday
24,18900000.0
80,0.0
92,0.0
2,17, 1,17, 0,19, 0.00,60.00,Thursday
24,18900000.0
80,0.0
92,0.0
2,17, 1,17, 0,20, 0.00,60.00,Thursday
24,18900000.0
80,0.0
92,0.0
2,17, 1,17, 0,21, 0.00,60.00,Thursday
24,18900000.0
80,0.0
92,0.0
2,17, 1,17, 0,22, 0.00,60.00,Thursday
24,18900000.0
80,0.0
92,0.0
2,17, 1,17, 0,23, 0.00,60.00,Thursday
24,18900000.0
80,0.0
92,0.0
2,17, 1,17, 0,24, 0.00,60.00,Thursday
24,18900000.0
80,0.0
92,0.0
2,18, 1,18, 0, 1, 0.00,60.00,Friday
24,18900000.0
80,0.0
92,0.0
2,18, 1,18, 0, 2, 0.00,60.00,Friday
24,18900000.0
80,0.0
92,0.0
2,18, 1,18, 0, 3, 0.00,60.00,Friday
24,18900000.0
80,0.0
92,0.0
2,18, 1,18, 0, 4, 0.00,60.00,Friday
24,18900000.0
80,0.0
92,0.0
2,18, 1,18, 0, 5, 0.00,60.00,Friday
24,18900000.0
80,0.0
92,0.0