Program Version,EnergyPlus, Version 8.9.0-40101eaafd, YMD=2018.05.21 15:43
1,5,Environment Title[],Latitude[deg],Longitude[deg],Time Zone[],Elevation[m]
2,8,Day of Simulation[],Month[],Day of Month[],DST Indicator[1=yes 0=no],Hour[],StartMinute[],EndMinute[],DayType
3,5,Cumulative Day of Simulation[],Month[],Day of Month[],DST Indicator[1=yes 0=no],DayType  ! When Daily Report Variables Requested
4,2,Cumulative Days of Simulation[],Month[]  ! When Monthly Report Variables Requested
5,1,Cumulative Days of Simulation[] ! When Run Period Report Variables Requested
6,1,Calendar Year of Simulation[] ! When Annual Report Variables Requested
7,1,Environment,Site Outdoor Air Drybulb Temperature [C] !Hourly
8,7,Environment,Site Daylight Saving Time Status [] !Daily [Value,Min,Hour,Minute,Max,Hour,Minute]
9,7,Environment,Site Day Type Index [] !Daily [Value,Min,Hour,Minute,Max,Hour,Minute]
47,1,ZONE ONE,Zone Total Internal Latent Gain Energy [J] !Hourly
48,9,TEST 352A,Other Equipment Total Heating Energy [J] !Monthly [Value,Min,Day,Hour,Minute,Max,Day,Hour,Minute]
49,9,ZONE ONE,Zone Other Equipment Total Heating Energy [J] !Monthly [Value,Min,Day,Hour,Minute,Max,Day,Hour,Minute]
50,9,TEST 352 MINUS,Other Equipment Total Heating Energy [J] !Monthly [Value,Min,Day,Hour,Minute,Max,Day,Hour,Minute]
51,7,ZN001:WALL001,Surface Inside Face Temperature [C] !Daily [Value,Min,Hour,Minute,Max,Hour,Minute]
52,7,ZN001:WALL001,Surface Outside Face Temperature [C] !Daily [Value,Min,Hour,Minute,Max,Hour,Minute]
53,7,ZN001:WALL001,Surface Inside Face Convection Heat Transfer Coefficient [W/m2-K] !Daily [Value,Min,Hour,Minute,Max,Hour,Minute]
54,7,ZN001:WALL001,Surface Outside Face Convection Heat Transfer Coefficient [W/m2-K] !Daily [Value,Min,Hour,Minute,Max,Hour,Minute]
55,7,ZN001:WALL002,Surface Inside Face Temperature [C] !Daily [Value,Min,Hour,Minute,Max,Hour,Minute]
56,7,ZN001:WALL002,Surface Outside Face Temperature [C] !Daily [Value,Min,Hour,Minute,Max,Hour,Minute]
57,7,ZN001:WALL002,Surface Inside Face Convection Heat Transfer Coefficient [W/m2-K] !Daily [Value,Min,Hour,Minute,Max,Hour,Minute]
58,7,ZN001:WALL002,Surface Outside Face Convection Heat Transfer Coefficient [W/m2-K] !Daily [Value,Min,Hour,Minute,Max,Hour,Minute]
59,7,ZN001:WALL003,Surface Inside Face Temperature [C] !Daily [Value,Min,Hour,Minute,Max,Hour,Minute]
60,7,ZN001:WALL003,Surface Outside Face Temperature [C] !Daily [Value,Min,Hour,Minute,Max,Hour,Minute]
61,7,ZN001:WALL003,Surface Inside Face Convection Heat Transfer Coefficient [W/m2-K] !Daily [Value,Min,Hour,Minute,Max,Hour,Minute]
62,7,ZN001:WALL003,Surface Outside Face Convection Heat Transfer Coefficient [W/m2-K] !Daily [Value,Min,Hour,Minute,Max,Hour,Minute]
63,7,ZN001:WALL004,Surface Inside Face Temperature [C] !Daily [Value,Min,Hour,Minute,Max,Hour,Minute]
64,7,ZN001:WALL004,Surface Outside Face Temperature [C] !Daily [Value,Min,Hour,Minute,Max,Hour,Minute]
65,7,ZN001:WALL004,Surface Inside Face Convection Heat Transfer Coefficient [W/m2-K] !Daily [Value,Min,Hour,Minute,Max,Hour,Minute]
66,7,ZN001:WALL004,Surface Outside Face Convection Heat Transfer Coefficient [W/m2-K] !Daily [Value,Min,Hour,Minute,Max,Hour,Minute]
67,7,ZN001:FLR001,Surface Inside Face Temperature [C] !Daily [Value,Min,Hour,Minute,Max,Hour,Minute]
68,7,ZN001:FLR001,Surface Outside Face Temperature [C] !Daily [Value,Min,Hour,Minute,Max,Hour,Minute]
69,7,ZN001:FLR001,Surface Inside Face Convection Heat Transfer Coefficient [W/m2-K] !Daily [Value,Min,Hour,Minute,Max,Hour,Minute]
70,7,ZN001:ROOF001,Surface Inside Face Temperature [C] !Daily [Value,Min,Hour,Minute,Max,Hour,Minute]
71,7,ZN001:ROOF001,Surface Outside Face Temperature [C] !Daily [Value,Min,Hour,Minute,Max,Hour,Minute]
72,7,ZN001:ROOF001,Surface Inside Face Convection Heat Transfer Coefficient [W/m2-K] !Daily [Value,Min,Hour,Minute,Max,Hour,Minute]
73,7,ZN001:ROOF001,Surface Outside Face Convection Heat Transfer Coefficient [W/m2-K] !Daily [Value,Min,Hour,Minute,Max,Hour,Minute]
74,1,ZONE ONE,Zone Mean Radiant Temperature [C] !Hourly
75,1,ZONE ONE,Zone Mean Air Temperature [C] !Hourly
76,1,ZONE ONE,Zone Air Heat Balance Surface Convection Rate [W] !Hourly
77,1,ZONE ONE,Zone Air Heat Balance Air Energy Storage Rate [W] !Hourly
End of Data Dictionary
1,DENVER CENTENNIAL  GOLDEN   N ANN HTG 99% CONDNS DB,  37.62,-122.40,  -8.00,   2.00
2,1,12,21, 0, 1, 0.00,60.00,WinterDesignDay
7,-15.5
47,0.0
74,-18.20826218021684
75,-18.210793929295464
76,-0.03595789011823891
77,-0.03602901316962552
2,1,12,21, 0, 2, 0.00,60.00,WinterDesignDay
7,-15.5
47,0.0
74,-18.20835106977728
75,-18.210880849861196
76,-0.03539414564154608
77,-0.03546415517091279
2,1,12,21, 0, 3, 0.00,60.00,WinterDesignDay
7,-15.5
47,0.0
74,-18.208438564444465
75,-18.210966407650106
76,-0.03483922704746423
77,-0.0349081404208947
2,1,12,21, 0, 4, 0.00,60.00,WinterDesignDay
7,-15.5
47,0.0
74,-18.208524686100135
75,-18.211050623999026
76,-0.03429299660994234
77,-0.034360830945689448
2,1,12,21, 0, 5, 0.00,60.00,WinterDesignDay
7,-15.5
47,0.0
74,-18.208609456283037
75,-18.211133519911806
76,-0.03375531872477611
77,-0.033822090865962609
2,1,12,21, 0, 6, 0.00,60.00,WinterDesignDay
7,-15.5
47,0.0
74,-18.208692896194284
75,-18.2112151160644
76,-0.033226059900528518
77,-0.03329178642654228
2,1,12,21, 0, 7, 0.00,60.00,WinterDesignDay
7,-15.5
47,0.0
74,-18.208775026702655
75,-18.211295432810009
76,-0.032705088708370858
77,-0.03276978594497853
2,1,12,21, 0, 8, 0.00,60.00,WinterDesignDay
7,-15.5
47,0.0
74,-18.208855868349766
75,-18.21137449018404
76,-0.03219227575513717
77,-0.032255959773390869
2,1,12,21, 0, 9, 0.00,60.00,WinterDesignDay
7,-15.5
47,0.0
74,-18.208935441355217
75,-18.21145230790907
76,-0.03168749365057222
77,-0.03175018027649759
2,1,12,21, 0,10, 0.00,60.00,WinterDesignDay
7,-15.5
47,0.0
74,-18.20901376562162
75,-18.21152890539967
76,-0.03119061698607073
77,-0.03125232180060496
2,1,12,21, 0,11, 0.00,60.00,WinterDesignDay
7,-15.5
47,0.0
74,-18.209090860739566
75,-18.21160430176719
76,-0.030701522298475227
77,-0.03076226063292386
2,1,12,21, 0,12, 0.00,60.00,WinterDesignDay
7,-15.5
47,0.0
74,-18.209166745992506
75,-18.211678515824447
76,-0.030220088035278537
77,-0.03027987498158332
2,1,12,21, 0,13, 0.00,60.00,WinterDesignDay
7,-15.5
47,0.0
74,-18.209241440361539
75,-18.2117515660904
76,-0.029746194532520588
77,-0.029805044962809187
2,1,12,21, 0,14, 0.00,60.00,WinterDesignDay
7,-15.5
47,0.0
74,-18.2093149625302
75,-18.211823470794678
76,-0.029279723977533757
77,-0.02933765252461722
2,1,12,21, 0,15, 0.00,60.00,WinterDesignDay
7,-15.5
47,0.0
74,-18.209387330889049
75,-18.21189424788207
76,-0.028820560395359519
77,-0.028877581465172526
2,1,12,21, 0,16, 0.00,60.00,WinterDesignDay
7,-15.5
47,0.0
74,-18.20945856354031
75,-18.211963915016967
76,-0.028368589609854224
77,-0.028424717389564245
2,1,12,21, 0,17, 0.00,60.00,WinterDesignDay
7,-15.5
47,0.0
74,-18.209528678302357
75,-18.2120324895877
76,-0.027923699212542897
77,-0.02797894765960447
2,1,12,21, 0,18, 0.00,60.00,WinterDesignDay
7,-15.5
47,0.0
74,-18.209597692714185
75,-18.212099988710827
76,-0.027485778558306696
77,-0.027540161410776508
2,1,12,21, 0,19, 0.00,60.00,WinterDesignDay
7,-15.5
47,0.0
74,-18.209665624039756
75,-18.212166429235397
76,-0.027054718703704684
77,-0.02710824949607612
2,1,12,21, 0,20, 0.00,60.00,WinterDesignDay
7,-15.5
47,0.0
74,-18.20973248927233
75,-18.21223182774707
76,-0.026630412403503724
77,-0.02668310446706009
2,1,12,21, 0,21, 0.00,60.00,WinterDesignDay
7,-15.5
47,0.0
74,-18.20979830513868
75,-18.212296200572216
76,-0.026212754080852997
77,-0.026264620517563447
2,1,12,21, 0,22, 0.00,60.00,WinterDesignDay
7,-15.5
47,0.0
74,-18.209863088103295
75,-18.212359563781935
76,-0.025801639807525146
77,-0.025852693524620976
2,1,12,21, 0,23, 0.00,60.00,WinterDesignDay
7,-15.5
47,0.0
74,-18.209926854372467
75,-18.21242193319609
76,-0.025396967264008198
77,-0.025447220975399998
2,1,12,21, 0,24, 0.00,60.00,WinterDesignDay
7,-15.5
47,0.0
74,-18.209989619898335
75,-18.212483324387145
76,-0.02499863572129435
77,-0.02504810194089674
3,1,12,21, 0,WinterDesignDay
51,-18.14471328242762,-18.145483003670458,24,60,-18.143842156807048, 1,15
52,-17.463534708984758,-17.46356480140904,24,60,-17.463500652232367, 1,15
53,0.5318681324987274,0.5317211025759808, 1,15,0.5319981736035574,24,60
54,7.151445430466874,7.151444452835517,24,60,7.151446536914569, 1,15
55,-18.14471328242762,-18.145483003670458,24,60,-18.143842156807048, 1,15
56,-17.463534708984758,-17.46356480140904,24,60,-17.463500652232367, 1,15
57,0.5318681324987274,0.5317211025759808, 1,15,0.5319981736035574,24,60
58,7.151445430466874,7.151444452835517,24,60,7.151446536914569, 1,15
59,-18.140488430520148,-18.141258217829987,24,60,-18.13961723028776, 1,15
60,-17.417306376157439,-17.41733578986366,24,60,-17.417273087534917, 1,15
61,0.542824792324485,0.5426838299988928, 1,15,0.5429494693785928,24,60
62,7.416426659605939,7.416425513352664,24,60,7.416427956890352, 1,15
63,-18.140488430520148,-18.141258217829987,24,60,-18.13961723028776, 1,15
64,-17.417306376157439,-17.41733578986366,24,60,-17.417273087534917, 1,15
65,0.542824792324485,0.5426838299988928, 1,15,0.5429494693785928,24,60
66,7.416426659605939,7.416425513352664,24,60,7.416427956890352, 1,15
67,-18.2157595505444,-18.216695568908816,24,60,-18.21470017824004, 1,15
68,-18.2157385022394,-18.216678230086357,24,60,-18.21467493162885, 1,15
69,0.12131074934358233,0.11997412319566404, 1,15,0.12247483769901228,24,60
70,-18.28248224981225,-18.283301107562705,24,60,-18.281555511643178, 1,15
71,-20.305776176423938,-20.305788400197277,24,60,-20.30576234221382, 1,15
72,0.6243095126739917,0.6243086265488962, 1,15,0.624310098693459,24,60
73,8.618881223085778,8.618880902209688,24,60,8.618881586236734, 1,15
8,0.0,0, 1,15,0, 1,15
9,10.,10, 1,15,10, 1,15
4,1,12
48,30412800.0,316800.0,21, 1,15,316800.0,21, 1,15
49,0.0,0.0,21, 1,15,0.0,21, 1,15
50,-30412800.0,-316800.0,21, 1,15,-316800.0,21, 1,15
1,DENVER CENTENNIAL  GOLDEN   N ANN CLG 1% CONDNS DB=>MWB,  37.62,-122.40,  -8.00,   2.00
2,1, 7,21, 0, 1, 0.00,60.00,SummerDesignDay
7,18.966
47,0.0
74,28.7014948751547
75,28.85815022381393
76,-98.58786803770363
77,-98.49880553339011
2,1, 7,21, 0, 2, 0.00,60.00,SummerDesignDay
7,18.244
47,0.0
74,28.420015962206784
75,28.57620231404014
76,-96.32258850085209
77,-96.83640680504891
2,1, 7,21, 0, 3, 0.00,60.00,SummerDesignDay
7,17.731
47,0.0
74,28.14655584941999
75,28.302053287843046
76,-94.17265414853836
77,-94.43277450929215
2,1, 7,21, 0, 4, 0.00,60.00,SummerDesignDay
7,17.275000000000003
47,0.0
74,27.87435156483064
75,28.0310617258582
76,-94.51618465061651
77,-94.40476110266721
2,1, 7,21, 0, 5, 0.00,60.00,SummerDesignDay
7,16.913999999999999
47,0.0
74,27.605391961444896
75,27.761011688653896
76,-92.87001470855248
77,-93.2434899361206
2,1, 7,21, 0, 6, 0.00,60.00,SummerDesignDay
7,16.990000000000003
47,0.0
74,27.542616277844489
75,27.578100353843113
76,5.805773440539994
77,-19.392345402735939
2,1, 7,21, 0, 7, 0.00,60.00,SummerDesignDay
7,17.769
47,0.0
74,27.96016118373093
75,27.827292450635878
76,127.50301648811952
77,125.74083399360672
2,1, 7,21, 0, 8, 0.00,60.00,SummerDesignDay
7,19.783
47,0.0
74,28.35899758994895
75,28.202566111843756
76,138.04921455381675
77,134.34843179201094
2,1, 7,21, 0, 9, 0.00,60.00,SummerDesignDay
7,22.557
47,0.0
74,28.81088029422601
75,28.64180307678634
76,167.16707868047667
77,163.80632875345968
2,1, 7,21, 0,10, 0.00,60.00,SummerDesignDay
7,25.255000000000004
47,0.0
74,29.31449095513746
75,29.136738002090085
76,169.34601959792895
77,170.99235042624373
2,1, 7,21, 0,11, 0.00,60.00,SummerDesignDay
7,27.649
47,0.0
74,29.757188890088327
75,29.599630650444284
76,149.1804470800359
77,152.24054467388585
2,1, 7,21, 0,12, 0.00,60.00,SummerDesignDay
7,29.454
47,0.0
74,30.102225642771477
75,29.98113704792313
76,112.48514913357852
77,117.64852696031557
2,1, 7,21, 0,13, 0.00,60.00,SummerDesignDay
7,30.784
47,0.0
74,30.429429887164554
75,30.292367653636825
76,120.76346549753838
77,114.03970277355714
2,1, 7,21, 0,14, 0.00,60.00,SummerDesignDay
7,31.715
47,0.0
74,30.837215507708078
75,30.696923927371054
76,144.7561898114359
77,146.14408279071706
2,1, 7,21, 0,15, 0.00,60.00,SummerDesignDay
7,32.0
47,0.0
74,31.149646567865529
75,31.07418362208152
76,109.58451720218867
77,115.49200834016716
2,1, 7,21, 0,16, 0.00,60.00,SummerDesignDay
7,31.43
47,0.0
74,31.297283982467005
75,31.315104774360206
76,53.33500103154636
77,61.20186617343149
2,1, 7,21, 0,17, 0.00,60.00,SummerDesignDay
7,30.328
47,0.0
74,31.28851291351196
75,31.397931219510384
76,10.189456101866004
77,13.616301809353484
2,1, 7,21, 0,18, 0.00,60.00,SummerDesignDay
7,28.922
47,0.0
74,31.162787837851789
75,31.360988822554579
76,-48.88792656105582
77,-37.08069095544032
2,1, 7,21, 0,19, 0.00,60.00,SummerDesignDay
7,26.927
47,0.0
74,30.688404150599838
75,31.016511696109146
76,-203.24132873139835
77,-179.64679602131768
2,1, 7,21, 0,20, 0.00,60.00,SummerDesignDay
7,25.027
47,0.0
74,30.11345558141636
75,30.342829525392177
76,-196.32767481346469
77,-217.55244302414949
2,1, 7,21, 0,21, 0.00,60.00,SummerDesignDay
7,23.544999999999999
47,0.0
74,29.81150094051525
75,29.955797108853895
76,-98.71309199269283
77,-101.76195646274639
2,1, 7,21, 0,22, 0.00,60.00,SummerDesignDay
7,22.177
47,0.0
74,29.5411653737892
75,29.685387657322975
76,-93.30188964344882
77,-92.85383630555032
2,1, 7,21, 0,23, 0.00,60.00,SummerDesignDay
7,20.999000000000004
47,0.0
74,29.268307084624124
75,29.41517270513525
76,-93.23285284336633
77,-93.42009586908486
2,1, 7,21, 0,24, 0.00,60.00,SummerDesignDay
7,19.935000000000004
47,0.0
74,28.989353274085397
75,29.142064148400367
76,-96.54445082860497
77,-95.96771145171597
3,1, 7,21, 0,SummerDesignDay
51,29.362154978582553,26.843146078362556, 6,15,31.784931958579379,15,45
52,27.567086837900637,15.338348087483317, 5,60,47.537156748657199,13,45
53,1.0620255954497762,0.3582016763338533,17,45,1.3185714926725055,13,60
54,9.784018940389338,9.648627167851135,16,30,10.1376948780765, 7,15
55,29.50853554660145,26.852301507563838, 6,15,31.437042080734466,16,30
56,30.173779295582166,15.502120875596832, 5,60,53.47487710144544, 9,45
57,1.07917944877986,0.17251649672135026,17,30,1.4832819831976274, 9,45
58,11.644276128296058,11.426209893514656,12,15,11.985833753723906,19,60
59,29.259472750393884,26.85222602195154, 6,15,31.460502121869387,17,60
60,25.62748741998522,15.502120875596832, 5,60,35.68345723928948,14,60
61,0.8723124828208836,0.14943746332202613,19,15,1.1865159323769135, 6,15
62,11.653591987545696,11.4751722048435,19,15,12.084923757644983, 6,45
63,29.493483295877259,26.852157799628445, 6,15,32.87168730633785,17,15
64,30.030755557783267,15.502120875596832, 5,60,61.19363415473803,17,15
65,1.0800947671587483,0.33963500304262536,19,60,1.500400538244618,17,15
66,11.650486656365454,11.426231675635265,19,45,12.05675418446128, 7,15
67,29.461003227250818,28.19604098235199, 7,60,30.72021200509441,19,15
68,29.460984213665915,28.19604098235199, 8,15,30.72021200509441,19,30
69,0.9636762752258267,0.19425359133119858, 8,60,1.3840415730193794, 6,15
70,29.54142735443313,27.246951306330293, 6,15,31.672534670796055,16,15
71,32.35546432644239,12.865062140972002, 5,60,61.85154708927268,13,45
72,0.8072598703597372,0.15037809730698599, 7,45,1.170379947519061,20,15
73,13.3889067752431,13.087086375609042,17,45,14.01723522666701,19,45
8,0.0,0, 1,15,0, 1,15
9,9.,9, 1,15,9, 1,15
4,1, 7
48,30412800.0,316800.0,21, 1,15,316800.0,21, 1,15
49,0.0,0.0,21, 1,15,0.0,21, 1,15
50,-30412800.0,-316800.0,21, 1,15,-316800.0,21, 1,15
1,San Francisco Intl Ap CA USA TMY3 WMO#=724940,  37.62,-122.40,  -8.00,   2.00
2,1, 1, 1, 0, 1, 0.00,60.00,Tuesday
7,7.0125
47,0.0
74,12.079204334789026
75,12.216775537870517
76,-82.68535360602503
77,-79.72225739579709
2,1, 1, 1, 0, 2, 0.00,60.00,Tuesday
7,7.2
47,0.0
74,11.96990037334699
75,12.048714082422002
76,-28.432866247703744
77,-39.01021850878371
2,1, 1, 1, 0, 3, 0.00,60.00,Tuesday
7,6.8875
47,0.0
74,11.858740270035949
75,11.963072267538069
76,-50.53451300296005
77,-43.341078915429857
2,1, 1, 1, 0, 4, 0.00,60.00,Tuesday
7,6.324999999999999
47,0.0
74,11.63430489368934
75,11.775806917970498
76,-87.77422279338907
77,-83.3352612719684
2,1, 1, 1, 0, 5, 0.00,60.00,Tuesday
7,5.0375
47,0.0
74,11.4147677199072
75,11.54460426250421
76,-76.43626029226096
77,-79.92534355878641
2,1, 1, 1, 0, 6, 0.00,60.00,Tuesday
7,4.4
47,0.0
74,11.212475685267716
75,11.34348112174862
76,-74.90340322547815
77,-74.57636188317905
2,1, 1, 1, 0, 7, 0.00,60.00,Tuesday
7,5.4624999999999999
47,0.0
74,11.027712128809597
75,11.151902959802023
76,-67.28916245096549
77,-68.42492820322674
2,1, 1, 1, 0, 8, 0.00,60.00,Tuesday
7,5.4125
47,0.0
74,11.185187950448569
75,11.084493990799045
76,95.9762056159854
77,49.36834762965394
2,1, 1, 1, 0, 9, 0.00,60.00,Tuesday
7,6.750000000000001
47,0.0
74,12.29099784925519
75,11.769344051627117
76,491.5128324260579
77,410.3704608926688
2,1, 1, 1, 0,10, 0.00,60.00,Tuesday
7,8.487499999999999
47,0.0
74,13.147242905455269
75,12.631568578698932
76,605.6287653340968
77,502.6899581494715
2,1, 1, 1, 0,11, 0.00,60.00,Tuesday
7,9.2125
47,0.0
74,13.625838002864477
75,13.54910090579073
76,246.1510931922894
77,293.8098898855513
2,1, 1, 1, 0,12, 0.00,60.00,Tuesday
7,9.775
47,0.0
74,13.822554207275692
75,13.888806035224106
76,63.58937738579499
77,66.37714418617613
2,1, 1, 1, 0,13, 0.00,60.00,Tuesday
7,10.375
47,0.0
74,14.058824036268627
75,14.068758352299245
76,92.62546667102143
77,82.27952773385265
2,1, 1, 1, 0,14, 0.00,60.00,Tuesday
7,10.9125
47,0.0
74,14.600393936137828
75,14.49597105462881
76,217.77887216762196
77,203.92994621759909
2,1, 1, 1, 0,15, 0.00,60.00,Tuesday
7,12.85
47,0.0
74,15.097904296958273
75,15.105655785861324
76,180.57899162362788
77,201.02047784635497
2,1, 1, 1, 0,16, 0.00,60.00,Tuesday
7,13.9
47,0.0
74,14.76776138263461
75,15.169086902307067
76,-177.79790290230415
77,-121.01140708997875
2,1, 1, 1, 0,17, 0.00,60.00,Tuesday
7,12.15
47,0.0
74,13.794283794410554
75,14.28835576007046
76,-365.93546515673986
77,-378.48457854171246
2,1, 1, 1, 0,18, 0.00,60.00,Tuesday
7,11.1
47,0.0
74,13.38290942210679
75,13.575277409617592
76,-156.19826791744195
77,-178.37472227966115
2,1, 1, 1, 0,19, 0.00,60.00,Tuesday
7,10.7875
47,0.0
74,13.164045491725794
75,13.283331264032843
76,-77.95639172391505
77,-82.31633608782727
2,1, 1, 1, 0,20, 0.00,60.00,Tuesday
7,10.6
47,0.0
74,13.044644488979527
75,13.125516029166765
76,-39.72985027673238
77,-44.30513528932377
2,1, 1, 1, 0,21, 0.00,60.00,Tuesday
7,9.5375
47,0.0
74,12.872604686617544
75,12.992292624539309
76,-70.46530341082475
77,-63.172562273133319
2,1, 1, 1, 0,22, 0.00,60.00,Tuesday
7,9.2125
47,0.0
74,12.715306854022247
75,12.810475447549689
76,-50.76647260178489
77,-57.19230953601748
2,1, 1, 1, 0,23, 0.00,60.00,Tuesday
7,8.4
47,0.0
74,12.51250957407496
75,12.648354141247948
76,-83.28815689285658
77,-74.92197766888047
2,1, 1, 1, 0,24, 0.00,60.00,Tuesday
7,7.1125
47,0.0
74,12.293761166286247
75,12.419088226340842
76,-74.96009067396509
77,-79.43052638953739
3,1, 1, 1, 0,Tuesday
51,13.240417973759343,10.457828907701443, 8,15,17.392589247717369,15,30
52,20.33751969302963,2.8942578010471124, 6,60,56.373300763642159,15,30
53,1.2261966919016459,0.7766276164285452,17,30,1.8027869165296613,11,15
54,4.989663819188028,1.6378812966692172, 8,45,7.706934218061583, 5,60
55,12.833177348916302,10.457525778282689, 8,15,15.275003888440724,15,60
56,13.321547056987975,2.8938603183703468, 6,60,44.93035314523301,10,30
57,1.0419357615976013,0.15432099383211976,16,15,1.7092577370250597,10,15
58,4.713212971636666,1.7006360028744357, 8,15,7.692147013629424,17,60
59,12.574002972441477,10.45752709842147, 8,15,15.275003888445074,15,60
60,9.037977424245828,2.9449227905111079, 6,60,18.649981387518534,15,45
61,0.9029736388306744,0.1543209936977453,16,15,1.1450097457202709,17,45
62,4.418481788446726,0.8561905097292143, 9,30,7.8630621822382749,17,30
63,12.74733592600204,10.457806285117825, 8,15,16.942255951174045,15,60
64,11.893582216563388,2.8942578010471124, 6,60,46.198558144053439,15,60
65,0.9880059982043191,0.22733834297911269,11,60,1.5853784294998737,15,45
66,4.5674863615886409,0.8561904626860805, 9,30,7.821312953006759,16,60
67,12.809528018241771,11.626221764416983, 8,60,13.888436575600169,17,15
68,12.809544488319274,11.626221764416983, 9,15,13.888436575600169,17,30
69,1.0222054058486026,0.18136336491155964, 9,45,1.2930670462384145, 8,30
70,12.78184177560488,10.65257687379732, 8,15,15.438590972653497,15,30
71,10.693117024215903,-2.9458816691886375, 8,30,34.860592044802768,14,45
72,0.8745547920185897,0.23550194555055779, 9,15,1.2925486455522984,17,45
73,5.214748565910459,1.1580369739155768, 9,15,8.987221702501972,17,30
8,0.0,0, 1,15,0, 1,15
9,3.,3, 1,15,3, 1,15
2,2, 1, 2, 0, 1, 0.00,60.00,Wednesday
7,8.075000000000001
47,0.0
74,12.208959746230367
75,12.279098637523662
76,-22.97908398518284
77,-31.149343442503246
2,2, 1, 2, 0, 2, 0.00,60.00,Wednesday
7,7.15
47,0.0
74,11.937531063605134
75,12.121829040026773
76,-125.79997311437107
77,-103.51159585534288
2,2, 1, 2, 0, 3, 0.00,60.00,Wednesday
7,5.7875
47,0.0
74,11.605947686981996
75,11.765314639243762
76,-106.44714825036069
77,-118.43718451365824
2,2, 1, 2, 0, 4, 0.00,60.00,Wednesday
7,4.5375
47,0.0
74,11.326015223901921
75,11.493437311727697
76,-105.66895474023336
77,-102.50147281751397
2,2, 1, 2, 0, 5, 0.00,60.00,Wednesday
7,4.9624999999999999
47,0.0
74,11.17671482015473
75,11.277396974682045
76,-39.19234073894252
77,-52.15959141843368
2,2, 1, 2, 0, 6, 0.00,60.00,Wednesday
7,6.6
47,0.0
74,11.193257835104165
75,11.243806501605489
76,4.335664055512513
77,1.9411142611480179
2,2, 1, 2, 0, 7, 0.00,60.00,Wednesday
7,7.575
47,0.0
74,11.192792807699412
75,11.247294134999068
76,-7.9400618458531639
77,-4.718637909924901
2,2, 1, 2, 0, 8, 0.00,60.00,Wednesday
7,7.425
47,0.0
74,11.269641613797637
75,11.2433144272009
76,32.77156939445004
77,18.70666989632561
2,2, 1, 2, 0, 9, 0.00,60.00,Wednesday
7,9.325000000000001
47,0.0
74,11.839695744691899
75,11.564373386271726
76,201.81519458078837
77,182.44175578523557
2,2, 1, 2, 0,10, 0.00,60.00,Wednesday
7,11.287499999999998
47,0.0
74,12.442613727078652
75,12.215711207864043
76,247.71872342114419
77,253.06321226535875
2,2, 1, 2, 0,11, 0.00,60.00,Wednesday
7,13.075
47,0.0
74,13.011545817198197
75,12.831167556578816
76,232.97058547335497
77,224.52251638859819
2,2, 1, 2, 0,12, 0.00,60.00,Wednesday
7,13.9
47,0.0
74,13.50036191040207
75,13.436311801006925
76,171.1294568903687
77,193.26933132640927
2,2, 1, 2, 0,13, 0.00,60.00,Wednesday
7,13.9
47,0.0
74,14.103865724429156
75,13.943871751158208
76,257.24369346948915
77,230.11956639895443
2,2, 1, 2, 0,14, 0.00,60.00,Wednesday
7,13.9
47,0.0
74,14.409980696531433
75,14.47091770647998
76,76.14888341029953
77,112.30976012975755
2,2, 1, 2, 0,15, 0.00,60.00,Wednesday
7,12.837499999999999
47,0.0
74,14.463388452736434
75,14.596210181599045
76,31.811483931091286
77,34.36153206056729
2,2, 1, 2, 0,16, 0.00,60.00,Wednesday
7,12.575
47,0.0
74,14.223431575495623
75,14.529551938099708
76,-120.50296625551548
77,-87.79886355131345
2,2, 1, 2, 0,17, 0.00,60.00,Wednesday
7,11.7375
47,0.0
74,13.416002623877036
75,13.848236613600193
76,-308.07450432127475
77,-312.2700373766587
2,2, 1, 2, 0,18, 0.00,60.00,Wednesday
7,10.7875
47,0.0
74,13.007240595270652
75,13.215244265698793
76,-165.9010754346183
77,-176.2713339808912
2,2, 1, 2, 0,19, 0.00,60.00,Wednesday
7,11.287499999999998
47,0.0
74,12.76616411655893
75,12.880742647381336
76,-76.85623724860521
77,-89.59386413196718
2,2, 1, 2, 0,20, 0.00,60.00,Wednesday
7,11.7
47,0.0
74,12.70297235270111
75,12.758104437965999
76,-18.14406728667432
77,-24.03964736965857
2,2, 1, 2, 0,21, 0.00,60.00,Wednesday
7,10.6375
47,0.0
74,12.582682699357293
75,12.683883949345488
76,-53.99281493250081
77,-44.442602343222208
2,2, 1, 2, 0,22, 0.00,60.00,Wednesday
7,9.3125
47,0.0
74,12.312683596740794
75,12.465476767448643
76,-103.8130051708065
77,-98.84963885116935
2,2, 1, 2, 0,23, 0.00,60.00,Wednesday
7,9.2125
47,0.0
74,12.10538013577495
75,12.218113177492097
76,-64.80510706655133
77,-73.53288876672043
2,2, 1, 2, 0,24, 0.00,60.00,Wednesday
7,9.0875
47,0.0
74,11.937165742420407
75,12.055041897049615
76,-64.83700913517844
77,-62.0529829636072
3,2, 1, 2, 0,Wednesday
51,12.839866586691472,10.66300851221615, 5,30,16.76413992143611,13,60
52,17.867773312044109,1.4657156754384069, 4,60,58.66564169011258,13,45
53,1.1617026710372514,0.4341310685120786, 8,60,1.8125512627000187,13,45
54,6.002406094278318,1.6163266736183256, 2,60,14.15238039862589, 9,60
55,12.47497103639182,10.664274926935, 4,60,14.739274336252839,14,15
56,11.652330161896215,1.465715679570859, 4,60,29.811022500915226,10,30
57,1.0125875945417909,0.3130693809226775,15,45,1.4033162994759192,10,45
58,5.787035440116792,1.674160409904677, 4,60,14.133138101359976, 9,60
59,12.335963852514406,10.66363845691923, 5,15,14.739269448329532,14,15
60,9.420005691846982,1.465715679570859, 4,60,21.22297413346653,13,60
61,0.9274798734516278,0.3130693810024393,15,45,1.1676338798466495, 5,15
62,5.469617896227806,1.674160409904677, 4,60,11.742094640104654, 9,60
63,12.483113347205924,10.663638456977779, 5,15,15.80452935955769,15,30
64,11.78241202692965,1.4657156754384067, 4,60,36.80493234754987,15,60
65,0.9999611172682142,0.4569497161061113, 9,45,1.3978266251501224,15,45
66,5.572969432054703,1.6163264943379119, 2,60,11.742094640104615, 9,60
67,12.586752384397903,11.602911603212347, 8,60,13.521161582443075,16,60
68,12.590595292560956,11.602911603212347, 9,15,13.521161582443075,17,15
69,1.0139721334250767,0.2997051070971733,18,15,1.3809039582289456, 5,30
70,12.47121134325968,10.92126369923489, 5,30,14.839274698706669,13,60
71,9.129088188096432,-4.78522711648837, 4,60,39.314861117417468,13,45
72,0.8648087551486131,0.2840159210933606,15,60,1.2488781210238185,17,45
73,6.615882059262977,1.4583835681645006,18,60,16.77282338789442, 9,45
8,0.0,0, 1,15,0, 1,15
9,4.,4, 1,15,4, 1,15
2,3, 1, 3, 0, 1, 0.00,60.00,Thursday
7,9.2125
47,0.0
74,11.907093736359555
75,11.94957411514232
76,-0.7209149964495047
77,-12.171104995390114
2,3, 1, 3, 0, 2, 0.00,60.00,Thursday
7,9.775
47,0.0
74,11.95596985244058
75,11.97869819234192
76,10.667744957535998
77,12.49103234329587
2,3, 1, 3, 0, 3, 0.00,60.00,Thursday
7,11.375
47,0.0
74,11.959292796885727
75,11.993447447297028
76,-4.01861060917878
77,-0.6434188237054048
2,3, 1, 3, 0, 4, 0.00,60.00,Thursday
7,13.2625
47,0.0
74,12.128241080807716
75,12.038946112140405
76,48.39094161358367
77,38.222579644221287
2,3, 1, 3, 0, 5, 0.00,60.00,Thursday
7,13.212500000000003
47,0.0
74,12.186072912614419
75,12.148568513428455
76,19.643098937202877
77,27.18370805674185
2,3, 1, 3, 0, 6, 0.00,60.00,Thursday
7,12.425
47,0.0
74,12.122112710420158
75,12.153413002255606
76,-12.11501029585743
77,-9.417365107041548
2,3, 1, 3, 0, 7, 0.00,60.00,Thursday
7,11.5125
47,0.0
74,12.026688071736427
75,12.091276363835407
76,-33.417252419239648
77,-30.846607934484639
2,3, 1, 3, 0, 8, 0.00,60.00,Thursday
7,11.1
47,0.0
74,12.058684274956708
75,12.029339544745986
76,13.116173999858408
77,-1.3288545258983522
2,3, 1, 3, 0, 9, 0.00,60.00,Thursday
7,11.474999999999998
47,0.0
74,12.51903756914179
75,12.282107098003858
76,181.70658943226733
77,159.2578009022025
2,3, 1, 3, 0,10, 0.00,60.00,Thursday
7,12.7
47,0.0
74,13.224567919070088
75,12.960158832135516
76,298.70285088364519
77,290.79447186661926
2,3, 1, 3, 0,11, 0.00,60.00,Thursday
7,12.6125
47,0.0
74,13.612419844619288
75,13.598758157056637
76,123.03772589515738
77,159.81059484123706
2,3, 1, 3, 0,12, 0.00,60.00,Thursday
7,13.95
47,0.0
74,13.95854183338252
75,13.862672834392113
76,146.54195738568957
77,119.5295990644623
2,3, 1, 3, 0,13, 0.00,60.00,Thursday
7,15.375000000000002
47,0.0
74,14.494810944901197
75,14.38075570402346
76,203.6421713115824
77,207.1302535834374
2,3, 1, 3, 0,14, 0.00,60.00,Thursday
7,15.912500000000002
47,0.0
74,15.091130062754396
75,14.986384997219876
76,225.42249983611289
77,227.8606611654489
2,3, 1, 3, 0,15, 0.00,60.00,Thursday
7,16.1
47,0.0
74,15.176255229174777
75,15.329944678540797
76,5.693752312606861
77,37.24172327022909
2,3, 1, 3, 0,16, 0.00,60.00,Thursday
7,14.725
47,0.0
74,14.778892195565926
75,15.123263661662883
76,-168.8691688837845
77,-141.11782263854475
2,3, 1, 3, 0,17, 0.00,60.00,Thursday
7,13.9
47,0.0
74,13.954255485852514
75,14.380428639330866
76,-312.5449504126028
77,-319.3871660883252
2,3, 1, 3, 0,18, 0.00,60.00,Thursday
7,13.212500000000003
47,0.0
74,13.677224582291946
75,13.804668164792439
76,-100.23085609101168
77,-125.56288175520653
2,3, 1, 3, 0,19, 0.00,60.00,Thursday
7,12.425
47,0.0
74,13.534848198432992
75,13.63210565941515
76,-57.466277194938289
77,-54.215151443859877
2,3, 1, 3, 0,20, 0.00,60.00,Thursday
7,11.2
47,0.0
74,13.285147783782726
75,13.428909366757056
76,-97.10261793802121
77,-91.25828078095309
2,3, 1, 3, 0,21, 0.00,60.00,Thursday
7,10.225
47,0.0
74,13.132564981843084
75,13.216736138080775
76,-43.40738386028725
77,-54.64195948937502
2,3, 1, 3, 0,22, 0.00,60.00,Thursday
7,9.3125
47,0.0
74,12.927293630628668
75,13.068743431451307
76,-88.63062603077134
77,-76.47444554757257
2,3, 1, 3, 0,23, 0.00,60.00,Thursday
7,8.9
47,0.0
74,12.800421519972457
75,12.87437279722371
76,-31.032006774394298
77,-45.238907616333197
2,3, 1, 3, 0,24, 0.00,60.00,Thursday
7,8.9
47,0.0
74,12.755665087574
75,12.82175204853203
76,-21.765193199041975
77,-18.916612968200555
3,3, 1, 3, 0,Thursday
51,13.519522778676525,11.557566774448148, 1,15,17.29544165382666,14,60
52,19.832638853363595,6.249592756494883,22,60,54.105104060810557,14,15
53,1.0323178026114495,0.11830200215124304, 5,60,1.7321497179261174,14,30
54,7.861285821144086,1.6738343869389479,22,60,16.913203470584, 5,60
55,13.198108711014579,11.542931903849035, 1,15,15.598427230100363,14,60
56,14.315455623017597,6.135070947254982, 1,15,34.40679686668096,10,60
57,0.8948933042126684,0.2545873231703204, 8,45,1.4585238171683659,11,15
58,8.970114037390849,1.7218102406899385,22,60,25.565484685529783, 5,60
59,13.066980377029692,11.542931903849033, 1,15,15.598423273722045,14,60
60,12.189287918216488,6.135070947254982, 1,15,22.33662862145001,14,45
61,0.8000590738474069,0.19566031206184343, 9,15,1.096328346673656,17,45